# vtk DataFile Version 3.0
vtk output 
ASCII

DATASET UNSTRUCTURED_GRID
POINTS   1381   float
 0.000000000000    0.000000000000    0.000000000000
 0.050000000000    0.000000000000    0.000000000000
 0.002083333000    0.000000000000    0.000000000000
 0.004166667000    0.000000000000    0.000000000000
 0.006250000000    0.000000000000    0.000000000000
 0.008333333000    0.000000000000    0.000000000000
 0.010416670000    0.000000000000    0.000000000000
 0.012500000000    0.000000000000    0.000000000000
 0.014583330000    0.000000000000    0.000000000000
 0.016666670000    0.000000000000    0.000000000000
 0.018750000000    0.000000000000    0.000000000000
 0.020833330000    0.000000000000    0.000000000000
 0.022916670000    0.000000000000    0.000000000000
 0.025000000000    0.000000000000    0.000000000000
 0.027083330000    0.000000000000    0.000000000000
 0.029166670000    0.000000000000    0.000000000000
 0.031250000000    0.000000000000    0.000000000000
 0.033333330000    0.000000000000    0.000000000000
 0.035416670000    0.000000000000    0.000000000000
 0.037500000000    0.000000000000    0.000000000000
 0.039583330000    0.000000000000    0.000000000000
 0.041666670000    0.000000000000    0.000000000000
 0.043750000000    0.000000000000    0.000000000000
 0.045833330000    0.000000000000    0.000000000000
 0.047916670000    0.000000000000    0.000000000000
 0.050000000000    0.100000000000    0.000000000000
 0.050000000000    0.002083333000    0.000000000000
 0.050000000000    0.004166667000    0.000000000000
 0.050000000000    0.006250000000    0.000000000000
 0.050000000000    0.008333333000    0.000000000000
 0.050000000000    0.010416670000    0.000000000000
 0.050000000000    0.012500000000    0.000000000000
 0.050000000000    0.014583330000    0.000000000000
 0.050000000000    0.016666670000    0.000000000000
 0.050000000000    0.018750000000    0.000000000000
 0.050000000000    0.020833330000    0.000000000000
 0.050000000000    0.022916670000    0.000000000000
 0.050000000000    0.025000000000    0.000000000000
 0.050000000000    0.027083330000    0.000000000000
 0.050000000000    0.029166670000    0.000000000000
 0.050000000000    0.031250000000    0.000000000000
 0.050000000000    0.033333330000    0.000000000000
 0.050000000000    0.035416670000    0.000000000000
 0.050000000000    0.037500000000    0.000000000000
 0.050000000000    0.039583330000    0.000000000000
 0.050000000000    0.041666670000    0.000000000000
 0.050000000000    0.043750000000    0.000000000000
 0.050000000000    0.045833330000    0.000000000000
 0.050000000000    0.047916670000    0.000000000000
 0.050000000000    0.050000000000    0.000000000000
 0.050000000000    0.052083330000    0.000000000000
 0.050000000000    0.054166670000    0.000000000000
 0.050000000000    0.056250000000    0.000000000000
 0.050000000000    0.058333330000    0.000000000000
 0.050000000000    0.060416670000    0.000000000000
 0.050000000000    0.062500000000    0.000000000000
 0.050000000000    0.064583330000    0.000000000000
 0.050000000000    0.066666670000    0.000000000000
 0.050000000000    0.068750000000    0.000000000000
 0.050000000000    0.070833330000    0.000000000000
 0.050000000000    0.072916670000    0.000000000000
 0.050000000000    0.075000000000    0.000000000000
 0.050000000000    0.077083330000    0.000000000000
 0.050000000000    0.079166670000    0.000000000000
 0.050000000000    0.081250000000    0.000000000000
 0.050000000000    0.083333330000    0.000000000000
 0.050000000000    0.085416670000    0.000000000000
 0.050000000000    0.087500000000    0.000000000000
 0.050000000000    0.089583330000    0.000000000000
 0.050000000000    0.091666670000    0.000000000000
 0.050000000000    0.093750000000    0.000000000000
 0.050000000000    0.095833330000    0.000000000000
 0.050000000000    0.097916670000    0.000000000000
 0.000000000000    0.100000000000    0.000000000000
 0.047916670000    0.100000000000    0.000000000000
 0.045833330000    0.100000000000    0.000000000000
 0.043750000000    0.100000000000    0.000000000000
 0.041666670000    0.100000000000    0.000000000000
 0.039583330000    0.100000000000    0.000000000000
 0.037500000000    0.100000000000    0.000000000000
 0.035416670000    0.100000000000    0.000000000000
 0.033333330000    0.100000000000    0.000000000000
 0.031250000000    0.100000000000    0.000000000000
 0.029166670000    0.100000000000    0.000000000000
 0.027083330000    0.100000000000    0.000000000000
 0.025000000000    0.100000000000    0.000000000000
 0.022916670000    0.100000000000    0.000000000000
 0.020833330000    0.100000000000    0.000000000000
 0.018750000000    0.100000000000    0.000000000000
 0.016666670000    0.100000000000    0.000000000000
 0.014583330000    0.100000000000    0.000000000000
 0.012500000000    0.100000000000    0.000000000000
 0.010416670000    0.100000000000    0.000000000000
 0.008333333000    0.100000000000    0.000000000000
 0.006250000000    0.100000000000    0.000000000000
 0.004166667000    0.100000000000    0.000000000000
 0.002083333000    0.100000000000    0.000000000000
 0.000000000000    0.097916670000    0.000000000000
 0.000000000000    0.095833330000    0.000000000000
 0.000000000000    0.093750000000    0.000000000000
 0.000000000000    0.091666670000    0.000000000000
 0.000000000000    0.089583330000    0.000000000000
 0.000000000000    0.087500000000    0.000000000000
 0.000000000000    0.085416670000    0.000000000000
 0.000000000000    0.083333330000    0.000000000000
 0.000000000000    0.081250000000    0.000000000000
 0.000000000000    0.079166670000    0.000000000000
 0.000000000000    0.077083330000    0.000000000000
 0.000000000000    0.075000000000    0.000000000000
 0.000000000000    0.072916670000    0.000000000000
 0.000000000000    0.070833330000    0.000000000000
 0.000000000000    0.068750000000    0.000000000000
 0.000000000000    0.066666670000    0.000000000000
 0.000000000000    0.064583330000    0.000000000000
 0.000000000000    0.062500000000    0.000000000000
 0.000000000000    0.060416670000    0.000000000000
 0.000000000000    0.058333330000    0.000000000000
 0.000000000000    0.056250000000    0.000000000000
 0.000000000000    0.054166670000    0.000000000000
 0.000000000000    0.052083330000    0.000000000000
 0.000000000000    0.050000000000    0.000000000000
 0.000000000000    0.047916670000    0.000000000000
 0.000000000000    0.045833330000    0.000000000000
 0.000000000000    0.043750000000    0.000000000000
 0.000000000000    0.041666670000    0.000000000000
 0.000000000000    0.039583330000    0.000000000000
 0.000000000000    0.037500000000    0.000000000000
 0.000000000000    0.035416670000    0.000000000000
 0.000000000000    0.033333330000    0.000000000000
 0.000000000000    0.031250000000    0.000000000000
 0.000000000000    0.029166670000    0.000000000000
 0.000000000000    0.027083330000    0.000000000000
 0.000000000000    0.025000000000    0.000000000000
 0.000000000000    0.022916670000    0.000000000000
 0.000000000000    0.020833330000    0.000000000000
 0.000000000000    0.018750000000    0.000000000000
 0.000000000000    0.016666670000    0.000000000000
 0.000000000000    0.014583330000    0.000000000000
 0.000000000000    0.012500000000    0.000000000000
 0.000000000000    0.010416670000    0.000000000000
 0.000000000000    0.008333333000    0.000000000000
 0.000000000000    0.006250000000    0.000000000000
 0.000000000000    0.004166667000    0.000000000000
 0.000000000000    0.002083333000    0.000000000000
 0.020850460000    0.020569820000    0.000000000000
 0.024646110000    0.024928190000    0.000000000000
 0.045556990000    0.003118275000    0.000000000000
 0.046881730000    0.095556990000    0.000000000000
 0.004443014000    0.096881730000    0.000000000000
 0.003084935000    0.004453381000    0.000000000000
 0.003078188000    0.095528120000    0.000000000000
 0.001402511000    0.096514160000    0.000000000000
 0.003485844000    0.098597490000    0.000000000000
 0.001402511000    0.098597490000    0.000000000000
 0.045528080000    0.096921830000    0.000000000000
 0.046514160000    0.098597490000    0.000000000000
 0.048597490000    0.096514160000    0.000000000000
 0.048597490000    0.098597490000    0.000000000000
 0.046921810000    0.004471885000    0.000000000000
 0.048597490000    0.003485844000    0.000000000000
 0.046514160000    0.001402511000    0.000000000000
 0.048597490000    0.001402511000    0.000000000000
 0.004457145000    0.003079607000    0.000000000000
 0.003485844000    0.001402511000    0.000000000000
 0.001402511000    0.003485844000    0.000000000000
 0.001402511000    0.001402511000    0.000000000000
 0.025197340000    0.070832390000    0.000000000000
 0.025134870000    0.066663850000    0.000000000000
 0.025134390000    0.062497810000    0.000000000000
 0.025134660000    0.058332970000    0.000000000000
 0.025134710000    0.054166600000    0.000000000000
 0.025134720000    0.049999980000    0.000000000000
 0.025134710000    0.045833290000    0.000000000000
 0.025134690000    0.041666440000    0.000000000000
 0.025134520000    0.037498640000    0.000000000000
 0.025133550000    0.033325200000    0.000000000000
 0.025115590000    0.029150360000    0.000000000000
 0.026640670000    0.025845350000    0.000000000000
 0.026809640000    0.028052280000    0.000000000000
 0.026826760000    0.030137970000    0.000000000000
 0.026844670000    0.032284690000    0.000000000000
 0.026845500000    0.034373840000    0.000000000000
 0.026845500000    0.036457170000    0.000000000000
 0.026845640000    0.038541470000    0.000000000000
 0.026845640000    0.040624810000    0.000000000000
 0.026845670000    0.042708300000    0.000000000000
[...]
POINT_DATA   1381

VECTORS   nDisp   float
 0.000000000000   -0.000000000000    0.000000000000
 0.008408975582   -0.000000000000    0.000000000000
 0.000350374893   -0.000000000000    0.000000000000
 0.000700749939   -0.000000000000    0.000000000000
 0.001051124791   -0.000000000000    0.000000000000
 0.001401499616   -0.000000000000    0.000000000000
 0.001751875055   -0.000000000000    0.000000000000
 0.002102249264   -0.000000000000    0.000000000000
 0.002452623404   -0.000000000000    0.000000000000
 0.002802999151   -0.000000000000    0.000000000000
 0.003153373112   -0.000000000000    0.000000000000
 0.003503746980   -0.000000000000    0.000000000000
 0.003854122457   -0.000000000000    0.000000000000
 0.004204496164   -0.000000000000    0.000000000000
 0.004554869702   -0.000000000000    0.000000000000
 0.004905244738   -0.000000000000    0.000000000000
 0.005255618038   -0.000000000000    0.000000000000
 0.005605991295   -0.000000000000    0.000000000000
 0.005956365970   -0.000000000000    0.000000000000
 0.006306738656   -0.000000000000    0.000000000000
 0.006657111071   -0.000000000000    0.000000000000
 0.007007485536   -0.000000000000    0.000000000000
 0.007357858588   -0.000000000000    0.000000000000
 0.007708231046   -0.000000000000    0.000000000000
 0.008058604318   -0.000000000000    0.000000000000
 0.008408927212   -0.010000000002    0.000000000000
 0.008408976051   -0.000208332855    0.000000000000
 0.008408975835   -0.000416665654    0.000000000000
 0.008408975540   -0.000624998110    0.000000000000
 0.008408975916   -0.000833331142    0.000000000000
 0.008408973214   -0.001041664955    0.000000000000
 0.008408969833   -0.001249996930    0.000000000000
 0.008408972105   -0.001458328875    0.000000000000
 0.008408972476   -0.001666662885    0.000000000000
 0.008408969764   -0.001874995148    0.000000000000
 0.008408970389   -0.002083327386    0.000000000000
 0.008408967861   -0.002291661422    0.000000000000
 0.008408963485   -0.002499993333    0.000000000000
 0.008408965059   -0.002708325237    0.000000000000
 0.008408964781   -0.002916659237    0.000000000000
 0.008408961433   -0.003124991494    0.000000000000
 0.008408961505   -0.003333323753    0.000000000000
 0.008408958540   -0.003541657814    0.000000000000
 0.008408953761   -0.003749989780    0.000000000000
 0.008408955016   -0.003958321794    0.000000000000
 0.008408954477   -0.004166655937    0.000000000000
 0.008408950970   -0.004374988385    0.000000000000
 0.008408950950   -0.004583320873    0.000000000000
 0.008408948000   -0.004791655218    0.000000000000
 0.008408943316   -0.004999987517    0.000000000000
 0.008408944764   -0.005208319921    0.000000000000
 0.008408944514   -0.005416654501    0.000000000000
 0.008408941364   -0.005624987419    0.000000000000
 0.008408941796   -0.005833320410    0.000000000000
 0.008408939312   -0.006041655256    0.000000000000
 0.008408935167   -0.006249988063    0.000000000000
 0.008408937125   -0.006458320947    0.000000000000
 0.008408937432   -0.006666655996    0.000000000000
 0.008408934787   -0.006874989338    0.000000000000
 0.008408935743   -0.007083322726    0.000000000000
 0.008408933706   -0.007291657897    0.000000000000
 0.008408929988   -0.007499990983    0.000000000000
 0.008408932329   -0.007708324141    0.000000000000
 0.008408933019   -0.007916659392    0.000000000000
 0.008408930856   -0.008124992957    0.000000000000
 0.008408932286   -0.008333326646    0.000000000000
 0.008408930814   -0.008541662050    0.000000000000
 0.008408927715   -0.008749995360    0.000000000000
 0.008408930521   -0.008958328860    0.000000000000
 0.008408931750   -0.009166664337    0.000000000000
 0.008408929772   -0.009374997864    0.000000000000
 0.008408931563   -0.009583331417    0.000000000000
 0.008408930363   -0.009791666588    0.000000000000
 0.000000000000   -0.010000000002    0.000000000000
 0.008058556348   -0.010000000005    0.000000000000
 0.007708182425   -0.010000000004    0.000000000000
 0.007357807962   -0.010000000004    0.000000000000
 0.007007434611   -0.010000000003    0.000000000000
 0.006657059745   -0.010000000004    0.000000000000
 0.006306686795   -0.010000000003    0.000000000000
 0.005956313600   -0.010000000004    0.000000000000
 0.005605939253   -0.010000000003    0.000000000000
 0.005255566789   -0.010000000004    0.000000000000
 0.004905194786   -0.010000000003    0.000000000000
 0.004554820829   -0.010000000004    0.000000000000
 0.004204448965   -0.010000000003    0.000000000000
 0.003854077573   -0.010000000004    0.000000000000
 0.003503704793   -0.010000000003    0.000000000000
 0.003153333963   -0.010000000004    0.000000000000
 0.002802963408   -0.010000000003    0.000000000000
 0.002452591398   -0.010000000004    0.000000000000
 0.002102221180   -0.010000000003    0.000000000000
 0.001751851348   -0.010000000004    0.000000000000
 0.001401480399   -0.010000000003    0.000000000000
 0.001051110161   -0.010000000004    0.000000000000
 0.000700740161   -0.010000000004    0.000000000000
 0.000350369931   -0.010000000005    0.000000000000
 0.000000000000   -0.009791668847    0.000000000000
 0.000000000000   -0.009583335383    0.000000000000
 0.000000000000   -0.009375004201    0.000000000000
 0.000000000000   -0.009166672929    0.000000000000
 0.000000000000   -0.008958340522    0.000000000000
 0.000000000000   -0.008750009011    0.000000000000
 0.000000000000   -0.008541677399    0.000000000000
 0.000000000000   -0.008333344665    0.000000000000
 0.000000000000   -0.008125012821    0.000000000000
 0.000000000000   -0.007916680888    0.000000000000
 0.000000000000   -0.007708347853    0.000000000000
 0.000000000000   -0.007500015699    0.000000000000
 0.000000000000   -0.007291683413    0.000000000000
 0.000000000000   -0.007083350017    0.000000000000
 0.000000000000   -0.006875017529    0.000000000000
 0.000000000000   -0.006666684949    0.000000000000
 0.000000000000   -0.006458351296    0.000000000000
 0.000000000000   -0.006250018554    0.000000000000
 0.000000000000   -0.006041685733    0.000000000000
 0.000000000000   -0.005833351822    0.000000000000
 0.000000000000   -0.005625018823    0.000000000000
 0.000000000000   -0.005416685737    0.000000000000
 0.000000000000   -0.005208351574    0.000000000000
 0.000000000000   -0.005000018337    0.000000000000
 0.000000000000   -0.004791685046    0.000000000000
 0.000000000000   -0.004583350695    0.000000000000
 0.000000000000   -0.004375017304    0.000000000000
 0.000000000000   -0.004166683857    0.000000000000
 0.000000000000   -0.003958349371    0.000000000000
 0.000000000000   -0.003750015832    0.000000000000
 0.000000000000   -0.003541682253    0.000000000000
 0.000000000000   -0.003333347625    0.000000000000
 0.000000000000   -0.003125013957    0.000000000000
 0.000000000000   -0.002916680245    0.000000000000
 0.000000000000   -0.002708345494    0.000000000000
 0.000000000000   -0.002500011704    0.000000000000
 0.000000000000   -0.002291677878    0.000000000000
 0.000000000000   -0.002083343017    0.000000000000
 0.000000000000   -0.001875009123    0.000000000000
 0.000000000000   -0.001666675198    0.000000000000
 0.000000000000   -0.001458340243    0.000000000000
 0.000000000000   -0.001250006260    0.000000000000
 0.000000000000   -0.001041672253    0.000000000000
 0.000000000000   -0.000833337526    0.000000000000
 0.000000000000   -0.000625003183    0.000000000000
 0.000000000000   -0.000416668830    0.000000000000
 0.000000000000   -0.000208334369    0.000000000000
 0.003506625065   -0.002056989157    0.000000000000
 0.004144974426   -0.002492826236    0.000000000000
 0.007661755990   -0.000311827261    0.000000000000
 0.007884500584   -0.009555697659    0.000000000000
 0.000747215187   -0.009688175349    0.000000000000
 0.000518824259   -0.000445340360    0.000000000000
 0.000517682142   -0.009552815496    0.000000000000
 0.000235870997   -0.009651418311    0.000000000000
 0.000586240696   -0.009859750071    0.000000000000
 0.000235870861   -0.009859749664    0.000000000000
 0.007656844259   -0.009692181802    0.000000000000
 0.007822683365   -0.009859748742    0.000000000000
 0.008173056943   -0.009651415310    0.000000000000
 0.008173056089   -0.009859749343    0.000000000000
 0.007891289814   -0.000447187867    0.000000000000
 0.008173103828   -0.000348583616    0.000000000000
 0.007822732092   -0.000140250802    0.000000000000
 0.008173103642   -0.000140250683    0.000000000000
 0.000749602499   -0.000307962255    0.000000000000
 0.000586249146   -0.000140251812    0.000000000000
 0.000235874256   -0.000348586182    0.000000000000
 0.000235874265   -0.000140251818    0.000000000000
 0.004237649349   -0.007083244009    0.000000000000
 0.004227146466   -0.006666391147    0.000000000000
 0.004227069097   -0.006249788160    0.000000000000
 0.004227117835   -0.005833305030    0.000000000000
 0.004227129487   -0.005416668704    0.000000000000
 0.004227134276   -0.005000007173    0.000000000000
 0.004227135514   -0.004583338405    0.000000000000
 0.004227134900   -0.004166653391    0.000000000000
 0.004227108881   -0.003749873169    0.000000000000
 0.004226948080   -0.003332528721    0.000000000000
 0.004223929618   -0.002915044010    0.000000000000
 0.004480418079   -0.002584541717    0.000000000000
 0.004508834399   -0.002805235070    0.000000000000
 0.004511712622   -0.003013804408    0.000000000000
 0.004514723560   -0.003228476697    0.000000000000
 0.004514861957   -0.003437391923    0.000000000000
 0.004514860689   -0.003645725085    0.000000000000
 0.004514882921   -0.003854155192    0.000000000000
 0.004514881567   -0.004062489254    0.000000000000
 0.004514885197   -0.004270838274    0.000000000000
 0.004514883734   -0.004479171247    0.000000000000
 0.004514882225   -0.004687507157    0.000000000000
 0.004514880657   -0.004895840000    0.000000000000
 0.004514879059   -0.005104172781    0.000000000000
 0.004514875745   -0.005312502511    0.000000000000
 0.004514874073   -0.005520831199    0.000000000000
 0.004514865644   -0.005729141846    0.000000000000
 0.004514857195   -0.005937449444    0.000000000000
 0.004514823501   -0.006145651998    0.000000000000
 0.004514781403   -0.006353828518    0.000000000000
 0.004514579565   -0.006561380026    0.000000000000
 0.004514698961   -0.006769806525    0.000000000000
 0.004513498241   -0.006973453040    0.000000000000
 0.004523878321   -0.007181879478    0.000000000000
 0.004518564247   -0.007360469055    0.000000000000
 0.004307785120   -0.007508492568    0.000000000000
 0.003968993635   -0.007414862264    0.000000000000
 0.003946772119   -0.007193688992    0.000000000000
 0.003936391987   -0.006985262630    0.000000000000
 0.003931331428   -0.006772217247    0.000000000000
 0.003931210268   -0.006563790799    0.000000000000
 0.003930125463   -0.006354196321    0.000000000000
 0.003930165754   -0.006146019787    0.000000000000
 0.003934144764   -0.005937478189    0.000000000000
 0.003934153051   -0.005729170556    0.000000000000
 0.003934154584   -0.005520837870    0.000000000000
 0.003934157772   -0.005312509126    0.000000000000
 0.003934159233   -0.005104176323    0.000000000000
 0.003934160644   -0.004895843458    0.000000000000
 0.003934162004   -0.004687509533    0.000000000000
 0.003934161637   -0.004479173547    0.000000000000
 0.003934162918   -0.004270840503    0.000000000000
 0.003934160804   -0.004062491400    0.000000000000
 0.003934162001   -0.003854157235    0.000000000000
 0.003934139597   -0.003645727009    0.000000000000
 0.003934140657   -0.003437393718    0.000000000000
 0.003934002064   -0.003228478364    0.000000000000
 0.003939051713   -0.003023231942    0.000000000000
 0.003936173340   -0.002814662474    0.000000000000
 0.003936214377   -0.002637486036    0.000000000000
 0.004404341246   -0.002370895417    0.000000000000
 0.004690766564   -0.002210605470    0.000000000000
 0.004768201140   -0.002683303188    0.000000000000
 0.004799628231   -0.003118667656    0.000000000000
 0.004802636032   -0.003541673969    0.000000000000
 0.004802633259   -0.003958340086    0.000000000000
 0.004802630305   -0.004375007039    0.000000000000
 0.004802627073   -0.004791672781    0.000000000000
 0.004802623699   -0.005208334280    0.000000000000
 0.004802613508   -0.005624975611    0.000000000000
 0.004802571233   -0.006041488792    0.000000000000
 0.004802333932   -0.006457243859    0.000000000000
 0.004800929667   -0.006868441947    0.000000000000
 0.004794413139   -0.007250678116    0.000000000000
 0.004578318220   -0.007577291261    0.000000000000
 0.004771002739   -0.007737328188    0.000000000000
 0.004028747651   -0.007631684407    0.000000000000
 0.003730589755   -0.007790699214    0.000000000000
 0.003667736314   -0.007316879848    0.000000000000
 0.003640455859   -0.006882662250    0.000000000000
 0.003634308684   -0.006460022414    0.000000000000
 0.003637201042   -0.006041885310    0.000000000000
 0.003641181409   -0.005625010979    0.000000000000
 0.003641184211   -0.005208344424    0.000000000000
 0.003641186834   -0.004791678607    0.000000000000
 0.003641189282   -0.004375011558    0.000000000000
 0.003641191569   -0.003958344261    0.000000000000
 0.003641193635   -0.003541677686    0.000000000000
 0.003646244164   -0.003128096857    0.000000000000
 0.003651336391   -0.002745674901    0.000000000000
 0.003860137416   -0.002423838613    0.000000000000
 0.003651484296   -0.002255222513    0.000000000000
 0.003924038296   -0.002080945541    0.000000000000
 0.004355324488   -0.002118889889    0.000000000000
 0.004990457639   -0.002101875622    0.000000000000
 0.005039474202   -0.002353880970    0.000000000000
 0.005053606963   -0.002576298271    0.000000000000
 0.005082024783   -0.002796990448    0.000000000000
 0.005091317160   -0.003011551594    0.000000000000
 0.005094327948   -0.003226223708    0.000000000000
 0.005095613147   -0.003437505791    0.000000000000
 0.005095611725   -0.003645838854    0.000000000000
 0.005095610271   -0.003854172885    0.000000000000
 0.005095608778   -0.004062505864    0.000000000000
 0.005095607223   -0.004270838784    0.000000000000
 0.005095605593   -0.004479171647    0.000000000000
 0.005095602205   -0.004687504467    0.000000000000
 0.005095600454   -0.004895837250    0.000000000000
 0.005095597001   -0.005104166992    0.000000000000
 0.005095593546   -0.005312496683    0.000000000000
 0.005095579973   -0.005520814321    0.000000000000
 0.005095573100   -0.005729125919    0.000000000000
 0.005095505659   -0.005937396498    0.000000000000
 0.005095470184   -0.006145599072    0.000000000000
 0.005095116897   -0.006353708647    0.000000000000
 0.005094915036   -0.006561260213    0.000000000000
 0.005093034791   -0.006769162779    0.000000000000
 0.005091832373   -0.006972809355    0.000000000000
 0.005087170522   -0.007181876964    0.000000000000
 0.005081854773   -0.007360466668    0.000000000000
 0.004981781921   -0.007589304682    0.000000000000
 0.004896848072   -0.007935102463    0.000000000000
 0.004493385915   -0.007923088799    0.000000000000
 0.004069381221   -0.007884330540    0.000000000000
 0.003425795965   -0.007899201128    0.000000000000
 0.003385162354   -0.007646555065    0.000000000000
 0.003371391753   -0.007425420805    0.000000000000
 0.003349171873   -0.007204247579    0.000000000000
 0.003341294251   -0.006988281262    0.000000000000
 0.003336233567   -0.006775235891    0.000000000000
 0.003334854296   -0.006563981453    0.000000000000
 0.003333767623   -0.006354385957    0.000000000000
 0.003333769040   -0.006146053393    0.000000000000
 0.003337747869   -0.005937511753    0.000000000000
 0.003337749238   -0.005729179067    0.000000000000
 0.003337750574   -0.005520845317    0.000000000000
 0.003337751861   -0.005312512501    0.000000000000
 0.003337753109   -0.005104179618    0.000000000000
 0.003337754315   -0.004895845669    0.000000000000
 0.003337755483   -0.004687512659    0.000000000000
 0.003337756610   -0.004479179588    0.000000000000
 0.003337757693   -0.004270845455    0.000000000000
 0.003337758721   -0.004062512253    0.000000000000
 0.003337759704   -0.003854178982    0.000000000000
 0.003337760623   -0.003645844640    0.000000000000
 0.003337761492   -0.003437511234    0.000000000000
 0.003342323328   -0.003228479759    0.000000000000
 0.003347372815   -0.003023233242    0.000000000000
 0.003366433312   -0.002812786643    0.000000000000
 0.003366475923   -0.002635611141    0.000000000000
 0.003442724233   -0.002399882306    0.000000000000
 0.003430621824   -0.001863392648    0.000000000000
 0.004210465335   -0.001920655620    0.000000000000
 0.004997106443   -0.001903576208    0.000000000000
 0.005345814091   -0.002046851778    0.000000000000
 0.005353297910   -0.002467568313    0.000000000000
 0.005376724510   -0.002904546570    0.000000000000
 0.005387301964   -0.003330389610    0.000000000000
 0.005388585629   -0.003750004639    0.000000000000
 0.005388582430   -0.004166670515    0.000000000000
 0.005388577330   -0.004583336124    0.000000000000
 0.005388572065   -0.004999998640    0.000000000000
 0.005388554863   -0.005416647004    0.000000000000
 0.005388473751   -0.005833236172    0.000000000000
 0.005388053016   -0.006249615377    0.000000000000
 0.005385817749   -0.006665627604    0.000000000000
 0.005379275701   -0.007082597842    0.000000000000
 0.005274539434   -0.007520504693    0.000000000000
 0.005225186655   -0.007961152448    0.000000000000
 0.004947569755   -0.008146912053    0.000000000000
 0.004195227969   -0.008082104570    0.000000000000
 0.003413857439   -0.008097401529    0.000000000000
 0.003068430182   -0.007953257291    0.000000000000
 0.003066597968   -0.007533922743    0.000000000000
 0.003044949649   -0.007096822199    0.000000000000
 0.003035692589   -0.006669600421    0.000000000000
 0.003034314536   -0.006250012384    0.000000000000
 0.003034317114   -0.005833346086    0.000000000000
 0.003034319552   -0.005416680509    0.000000000000
 0.003034321827   -0.005000013664    0.000000000000
 0.003034323951   -0.004583346559    0.000000000000
 0.003034325894   -0.004166680188    0.000000000000
 0.003034327629   -0.003750012545    0.000000000000
 0.003038890193   -0.003332647634    0.000000000000
 0.003062512377   -0.002913169478    0.000000000000
 0.003157822757   -0.002466993999    0.000000000000
 0.003158067781   -0.002037669604    0.000000000000
 0.003258517303   -0.001663100185    0.000000000000
 0.003607076323   -0.001682418822    0.000000000000
 0.003996252308   -0.001691868321    0.000000000000
 0.004427536870   -0.001729812754    0.000000000000
 0.004818939310   -0.001730854122    0.000000000000
 0.005174295870   -0.001675829446    0.000000000000
 0.005591045927   -0.001703168821    0.000000000000
 0.005644035008   -0.001945410017    0.000000000000
 0.005637386091   -0.002143710227    0.000000000000
 0.005651999844   -0.002362803352    0.000000000000
 0.005666132422   -0.002585220433    0.000000000000
 0.005673377938   -0.002801151477    0.000000000000
 0.005682670133   -0.003015712468    0.000000000000
 0.005683763602   -0.003226221457    0.000000000000
 0.005685048752   -0.003437503420    0.000000000000
 0.005685047300   -0.003645836372    0.000000000000
 0.005685045714   -0.003854170295    0.000000000000
 0.005685044000   -0.004062503171    0.000000000000
 0.005685040555   -0.004270835993    0.000000000000
 0.005685038773   -0.004479169769    0.000000000000
 0.005685036986   -0.004687501512    0.000000000000
 0.005685035171   -0.004895835233    0.000000000000
 0.005685031593   -0.005104164929    0.000000000000